                               Psi4 1.3.2 release

  ==> Input File <==

--------------------------------------------------------------------------
# PSI4 file for H2 CCSD energy

memory 10 GB

molecule mol {
0 1
H
H 1 R
}

Rvals = [.25,.5,.75,1,1.25,1.5,2,3,4]

table = Table(rows=["R"], cols=["E(CCSD)"])

set {
  scf_type df
  mp2_type df
  cc_type df
  freeze_core true
}

for R in Rvals:
    mol.R = R
    eccsd = energy('ccsd/sto-3g')
    table[R] = [eccsd]

print_out('Table of Results \n')
print_out(str(table))

--------------------------------------------------------------------------

    Molecular point group: d2h
  Charge       = 0
  Multiplicity = 1
  Basis Set: STO-3G
    Blend: STO-3G
  Basis Set: (STO-3G AUX)
    Blend: DEF2-SVP-JKFIT
  @DF-RHF Final Energy:    -0.30503538613501
    Total Energy =                         -0.3050353861350090
  Basis Set: STO-3G
    Blend: STO-3G
  Basis Set: (STO-3G AUX)
    Blend: DEF2-QZVPP-RI
      * MP2 total energy:                    -0.310539088473
      * CCSD total energy:                   -0.312303670806
    Molecular point group: d2h
  Basis Set: STO-3G
    Blend: STO-3G
  Basis Set: (STO-3G AUX)
    Blend: DEF2-SVP-JKFIT
  @DF-RHF Final Energy:    -1.04302277948899
    Total Energy =                         -1.0430227794889928
  Basis Set: STO-3G
    Blend: STO-3G
  Basis Set: (STO-3G AUX)
    Blend: DEF2-QZVPP-RI
      * MP2 total energy:                    -1.051513355694
      * CCSD total energy:                   -1.055188230502
  @DF-RHF Final Energy:    -1.11617538632217
    Total Energy =                         -1.1161753863221739
      * MP2 total energy:                    -1.129549828582
      * CCSD total energy:                   -1.137144635566
  @DF-RHF Final Energy:    -1.06613556623701
    Total Energy =                         -1.0661355662370107
      * MP2 total energy:                    -1.086691309319
      * CCSD total energy:                   -1.101175111454
  @DF-RHF Final Energy:    -0.98916072205151
    Total Energy =                         -0.9891607220515092
      * MP2 total energy:                    -1.020089858355
      * CCSD total energy:                   -1.045811191597
  @DF-RHF Final Energy:    -0.91095204286356
    Total Energy =                         -0.9109520428635608
      * MP2 total energy:                    -0.956364357258
      * CCSD total energy:                   -0.998199925740
  @DF-RHF Final Energy:    -0.78390523203329
    Total Energy =                         -0.7839052320332950
      * MP2 total energy:                    -0.872627041814
      * CCSD total energy:                   -0.948763250200
  Multiplicity = 1
  Basis Set: (STO-3G AUX)
    Blend: DEF2-SVP-JKFIT
  @DF-RHF Final Energy:    -0.65619803104531
    Total Energy =                         -0.6561980310453068
  Basis Set: STO-3G
    Blend: STO-3G
  Basis Set: (STO-3G AUX)
    Blend: DEF2-QZVPP-RI
      * MP2 total energy:                    -0.881572007979
      * CCSD total energy:                   -0.933774846568
    Molecular point group: d2h

    Geometry (in Angstrom), charge = 0, multiplicity = 1:

       Center              X                  Y                   Z               Mass
    ------------   -----------------  -----------------  -----------------  -----------------
         H            0.000000000000     0.000000000000    -2.000000000000     1.007825032230
         H            0.000000000000     0.000000000000     2.000000000000     1.007825032230

  Charge       = 0
  Multiplicity = 1
  Basis Set: STO-3G
    Blend: STO-3G
  Basis Set: (STO-3G AUX)
    Blend: DEF2-SVP-JKFIT

    Orbital Energies [Eh]
    ---------------------

    Doubly Occupied:

       1Ag    -0.147327

  @DF-RHF Final Energy:    -0.61501787485178

   => Energetics <=

    Nuclear Repulsion Energy =              0.1322943026674999
    One-Electron Energy =                  -1.1999707951658622
    Two-Electron Energy =                   0.4526586176465827
    Total Energy =                         -0.6150178748517797

  Dipole Moment: [D]
     X:     0.0000      Y:     0.0000      Z:     0.0000     Total:     0.0000

  Basis Set: STO-3G
    Blend: STO-3G
  Basis Set: (STO-3G AUX)
    Blend: DEF2-QZVPP-RI
      * MP2 total energy:                    -0.996564766160
      * CCSD total energy:                   -0.933315712754
*** Psi4 exiting successfully. Buy a developer a beer!
