                               Psi4 1.3.2 release

  ==> Input File <==

--------------------------------------------------------------------------
# PSI4 file for H2 UHF energy

memory 10 GB

molecule mol {
0 1
H
H 1 R
symmetry c1
}

Rvals = [.25,.5,.75,1,1.25,1.5,2,3,4]

table = Table(rows=["R"], cols=["E(UHF)"])

set {
  scf_type df
  mp2_type df
  cc_type df
  freeze_core true
  reference uhf
  guess_mix True
  guess gwh
}

for R in Rvals:
    mol.R = R
    euhf = energy('hf/sto-3g')
    table[R] = [euhf]

print_out('Table of Results \n')
print_out(str(table))

--------------------------------------------------------------------------

    Molecular point group: c1
  Charge       = 0
  Multiplicity = 1
  Basis Set: STO-3G
    Blend: STO-3G
  Basis Set: (STO-3G AUX)
    Blend: DEF2-SVP-JKFIT
  @DF-UHF Final Energy:    -0.30503538613289
    Total Energy =                         -0.3050353861328919
    Molecular point group: c1
  Basis Set: STO-3G
    Blend: STO-3G
  Basis Set: (STO-3G AUX)
    Blend: DEF2-SVP-JKFIT
  @DF-UHF Final Energy:    -1.04302277948430
    Total Energy =                         -1.0430227794843001
  Basis Set: STO-3G
    Blend: STO-3G
  Basis Set: (STO-3G AUX)
    Blend: DEF2-SVP-JKFIT
  @DF-UHF Final Energy:    -1.11617538631536
    Total Energy =                         -1.1161753863153603
  Basis Set: STO-3G
    Blend: STO-3G
  Basis Set: (STO-3G AUX)
    Blend: DEF2-SVP-JKFIT
  @DF-UHF Final Energy:    -1.06613556623695
    Total Energy =                         -1.0661355662369518
  @DF-UHF Final Energy:    -0.99419531633450
    Total Energy =                         -0.9941953163344965
  Basis Set: STO-3G
    Blend: STO-3G
  Basis Set: (STO-3G AUX)
    Blend: DEF2-SVP-JKFIT
  @DF-UHF Final Energy:    -0.95770197677638
    Total Energy =                         -0.9577019767763767
  Basis Set: STO-3G
    Blend: STO-3G
  Basis Set: (STO-3G AUX)
    Blend: DEF2-SVP-JKFIT
  @DF-UHF Final Energy:    -0.93722463910540
    Total Energy =                         -0.9372246391053982
  Multiplicity = 1
  Basis Set: STO-3G
    Blend: STO-3G
  Basis Set: (STO-3G AUX)
    Blend: DEF2-SVP-JKFIT
  @DF-UHF Final Energy:    -0.93328537990725
    Total Energy =                         -0.9332853799072507
    Molecular point group: c1

    Geometry (in Angstrom), charge = 0, multiplicity = 1:

       Center              X                  Y                   Z               Mass
    ------------   -----------------  -----------------  -----------------  -----------------
         H            0.000000000000     0.000000000000    -2.000000000000     1.007825032230
         H            0.000000000000     0.000000000000     2.000000000000     1.007825032230

  Charge       = 0
  Multiplicity = 1
  Basis Set: STO-3G
    Blend: STO-3G
  Basis Set: (STO-3G AUX)
    Blend: DEF2-SVP-JKFIT

    Orbital Energies [Eh]
    ---------------------

    Alpha Occupied:

       1A     -0.466581

    Alpha Virtual:

       2A      0.307732

    Beta Occupied:

       1A     -0.466581

    Beta Virtual:

       2A      0.307732

    Final Occupation by Irrep:
              A
    DOCC [     1 ]
    SOCC [     0 ]

  @DF-UHF Final Energy:    -0.93316619815151

   => Energetics <=

    Nuclear Repulsion Energy =              0.1322943026675000
    One-Electron Energy =                  -1.1977583010586907
    Two-Electron Energy =                   0.1322978002396819
    Total Energy =                         -0.9331661981515088

  UHF NO Occupations:
  HONO-0 :    1  A 1.0044684
  LUNO+0 :    2  A 0.9955316

Computation Completed

Properties will be evaluated at   0.000000,   0.000000,   0.000000 [a0]

Properties computed using the SCF density matrix

  Nuclear Dipole Moment: [e a0]
     X:     0.0000      Y:     0.0000      Z:    -0.0000

  Electronic Dipole Moment: [e a0]
     X:     0.0000      Y:     0.0000      Z:     0.0000

  Dipole Moment: [e a0]
     X:     0.0000      Y:     0.0000      Z:     0.0000     Total:     0.0000

  Dipole Moment: [D]
     X:     0.0000      Y:     0.0000      Z:     0.0000     Total:     0.0000

*** tstop() called on atl1-1-02-012-10-l.pace.gatech.edu at Tue May 17 16:41:03 2022
Module time:
	user time   =       0.10 seconds =       0.00 minutes
	system time =       0.00 seconds =       0.00 minutes
	total time  =          0 seconds =       0.00 minutes
Total time:
	user time   =       1.01 seconds =       0.02 minutes
	system time =       0.03 seconds =       0.00 minutes
	total time  =          2 seconds =       0.03 minutes
Table of Results
         R          E(UHF)
      0.25   -0.3050353861
       0.5   -1.0430227795
      0.75   -1.1161753863
         1   -1.0661355662
      1.25   -0.9941953163
       1.5   -0.9577019768
         2   -0.9372246391
         3   -0.9332853799
         4   -0.9331661982

    Psi4 stopped on: Tuesday, 17 May 2022 04:41PM
    Psi4 wall time for execution: 0:00:01.46

*** Psi4 exiting successfully. Buy a developer a beer!
