                               Psi4 1.3.2 release

  ==> Input File <==

--------------------------------------------------------------------------
#PSI4 file for HOH opt

memory 10 GB

molecule mol {
0 1
H
O 1 OH
H 2 OH 1 HOH

OH = 1
HOH = 104.5
}

set {
  scf_type df
  mp2_type df
  cc_type df
  freeze_core true
  basis cc-pvdz
}

optimize('ccsd(t)')
frequencies('ccsd(t)')

--------------------------------------------------------------------------

    Molecular point group: c2v
  Charge       = 0
  Multiplicity = 1
  Basis Set: CC-PVDZ
    Blend: CC-PVDZ
  Basis Set: (CC-PVDZ AUX)
    Blend: CC-PVDZ-JKFIT
  @DF-RHF Final Energy:   -76.02139746465571
    Total Energy =                        -76.0213974646557062
	DF-MP2 Total Energy (a.u.)         :   -76.22605760909826
    Molecular point group: c2v
  Basis Set: CC-PVDZ
    Blend: CC-PVDZ
  Basis Set: (CC-PVDZ AUX)
    Blend: CC-PVDZ-JKFIT
  @DF-RHF Final Energy:   -76.02593725030020
    Total Energy =                        -76.0259372503002169
	DF-MP2 Total Energy (a.u.)         :   -76.22856714757496
  Basis Set: CC-PVDZ
    Blend: CC-PVDZ
  Basis Set: (CC-PVDZ AUX)
    Blend: CC-PVDZ-JKFIT
  @DF-RHF Final Energy:   -76.02605987303025
    Total Energy =                        -76.0260598730302490
	DF-MP2 Total Energy (a.u.)         :   -76.22860998687530
  Basis Set: CC-PVDZ
    Blend: CC-PVDZ
  Basis Set: (CC-PVDZ AUX)
    Blend: CC-PVDZ-JKFIT
  @DF-RHF Final Energy:   -76.02609549268743
    Total Energy =                        -76.0260954926874319
	DF-MP2 Total Energy (a.u.)         :   -76.22861219547136
  **** Optimization is complete! (in 4 steps) ****
    Final optimized geometry and variables:
  @DF-RHF Final Energy:   -76.02609549268678
    Total Energy =                        -76.0260954926867640
	DF-MP2 Total Energy (a.u.)         :   -76.22861219547026
  @DF-RHF Final Energy:   -76.02609549268665
    Total Energy =                        -76.0260954926866361
	DF-MP2 Total Energy (a.u.)         :   -76.22861219547012
  @DF-RHF Final Energy:   -76.02618629855080
    Total Energy =                        -76.0261862985507832
	DF-MP2 Total Energy (a.u.)         :   -76.22861530925444
  Basis Set: CC-PVDZ
    Blend: CC-PVDZ
  Basis Set: (CC-PVDZ AUX)
    Blend: CC-PVDZ-JKFIT
  @DF-RHF Final Energy:   -76.02599452975986
    Total Energy =                        -76.0259945297598563
	DF-MP2 Total Energy (a.u.)         :   -76.22859915599254
  Basis Set: CC-PVDZ
    Blend: CC-PVDZ
  Basis Set: (CC-PVDZ AUX)
    Blend: CC-PVDZ-JKFIT
  @DF-RHF Final Energy:   -76.02597560659888
    Total Energy =                        -76.0259756065988768
	DF-MP2 Total Energy (a.u.)         :   -76.22860302101411
  Multiplicity = 1
  Basis Set: CC-PVDZ
    Blend: CC-PVDZ
  Basis Set: (CC-PVDZ AUX)
    Blend: CC-PVDZ-JKFIT
  @DF-RHF Final Energy:   -76.02620827633136
    Total Energy =                        -76.0262082763313600
	DF-MP2 Total Energy (a.u.)         :   -76.22861472107239
    Molecular point group: cs

    Geometry (in Angstrom), charge = 0, multiplicity = 1:

       Center              X                  Y                   Z               Mass
    ------------   -----------------  -----------------  -----------------  -----------------
         H            0.000000000000     0.749029762556    -0.539401537841     1.007825032230
         O            0.000000000000     0.000175839521     0.068117020125    15.994914619570
         H            0.000000000000    -0.751820463365    -0.541665002680     1.007825032230

  Charge       = 0
  Multiplicity = 1
  Basis Set: CC-PVDZ
    Blend: CC-PVDZ
  Basis Set: (CC-PVDZ AUX)
    Blend: CC-PVDZ-JKFIT

    Orbital Energies [Eh]
    ---------------------

    Doubly Occupied:

       1Ap   -20.553435     2Ap    -1.334257     3Ap    -0.689571
       4Ap    -0.570242     1App   -0.493460

  @DF-RHF Final Energy:   -76.02608820062078

   => Energetics <=

    Nuclear Repulsion Energy =              9.1154077995750242
    One-Electron Energy =                -123.0010647447599013
    Two-Electron Energy =                  37.8595687445640934
    Total Energy =                        -76.0260882006207908

  Dipole Moment: [D]
     X:     0.0000      Y:    -0.0027      Z:    -2.1044     Total:     2.1044

	DF-MP2 Total Energy (a.u.)         :   -76.22860480361460

  -Total Gradient:
     Atom            X                  Y                   Z
    ------   -----------------  -----------------  -----------------
       1       -0.000000000000    -0.001596208994     0.001292237390
       2       -0.000000000000     0.003104698641    -0.000065376965
       3        0.000000000000    -0.001508489647    -0.001226860426

  Vibration                       7                   8                   9
  Freq [cm^-1]                1690.5939           3822.2173           3929.1246
  Irrep                           A                   A                   A
  Reduced mass [u]              1.0810              1.0467              1.0793
  Force const [mDyne/A]         1.8203              9.0099              9.8168

  ==> Thermochemistry Components <==

  Entropy, S
    Electronic S            0.000 [cal/(mol K)]        0.000 [J/(mol K)]       0.00000000 [mEh/K] (multiplicity = 1)
    Translational S        34.608 [cal/(mol K)]      144.801 [J/(mol K)]       0.05515177 [mEh/K] (mol. weight = 18.0106 [u], P = 101325.00 [Pa])
    Rotational S           10.520 [cal/(mol K)]       44.017 [J/(mol K)]       0.01676538 [mEh/K] (symmetry no. = 2)
    Vibrational S           0.005 [cal/(mol K)]        0.022 [J/(mol K)]       0.00000831 [mEh/K]
  Total S                  45.134 [cal/(mol K)]      188.840 [J/(mol K)]       0.07192546 [mEh/K]
  Correction S              0.000 [cal/(mol K)]        0.000 [J/(mol K)]       0.00000000 [mEh/K]

  Constant volume heat capacity, Cv
    Electronic Cv           0.000 [cal/(mol K)]        0.000 [J/(mol K)]       0.00000000 [mEh/K]
    Translational Cv        2.981 [cal/(mol K)]       12.472 [J/(mol K)]       0.00475022 [mEh/K]
    Rotational Cv           2.981 [cal/(mol K)]       12.472 [J/(mol K)]       0.00475022 [mEh/K]
    Vibrational Cv          0.038 [cal/(mol K)]        0.159 [J/(mol K)]       0.00006041 [mEh/K]
  Total Cv                  6.000 [cal/(mol K)]       25.102 [J/(mol K)]       0.00956084 [mEh/K]
  Correction Cv             0.000 [cal/(mol K)]        0.000 [J/(mol K)]       0.00000000 [mEh/K]

  Constant pressure heat capacity, Cp
    Electronic Cp           0.000 [cal/(mol K)]        0.000 [J/(mol K)]       0.00000000 [mEh/K]
    Translational Cp        4.968 [cal/(mol K)]       20.786 [J/(mol K)]       0.00791703 [mEh/K]
    Rotational Cp           2.981 [cal/(mol K)]       12.472 [J/(mol K)]       0.00475022 [mEh/K]
    Vibrational Cp          0.038 [cal/(mol K)]        0.159 [J/(mol K)]       0.00006041 [mEh/K]
  Total Cp                  7.987 [cal/(mol K)]       33.416 [J/(mol K)]       0.01272765 [mEh/K]
  Correction Cp             0.000 [cal/(mol K)]        0.000 [J/(mol K)]       0.00000000 [mEh/K]

  ==> Thermochemistry Energy Analysis <==

  Raw electronic energy, E0
  Total E0, Electronic energy at well bottom at 0 [K]                  -76.24140912 [Eh]

  Zero-point energy, ZPE_vib = Sum_i nu_i / 2
    Electronic ZPE          0.000 [kcal/mol]        0.000 [kJ/mol]       0.00000000 [Eh]
    Translational ZPE       0.000 [kcal/mol]        0.000 [kJ/mol]       0.00000000 [Eh]
    Rotational ZPE          0.000 [kcal/mol]        0.000 [kJ/mol]       0.00000000 [Eh]
    Vibrational ZPE        13.498 [kcal/mol]       56.475 [kJ/mol]       0.02151031 [Eh]        4720.968 [cm^-1]
  Correction ZPE           13.498 [kcal/mol]       56.475 [kJ/mol]       0.02151031 [Eh]        4720.968 [cm^-1]
  Total ZPE, Electronic energy at 0 [K]                                -76.21989881 [Eh]

  Thermal Energy, E (includes ZPE)
    Electronic E            0.000 [kcal/mol]        0.000 [kJ/mol]       0.00000000 [Eh]
    Translational E         0.889 [kcal/mol]        3.718 [kJ/mol]       0.00141628 [Eh]
    Rotational E            0.889 [kcal/mol]        3.718 [kJ/mol]       0.00141628 [Eh]
    Vibrational E          13.499 [kcal/mol]       56.481 [kJ/mol]       0.02151252 [Eh]
  Correction E             15.277 [kcal/mol]       63.918 [kJ/mol]       0.02434507 [Eh]
  Total E, Electronic energy at  298.15 [K]                            -76.21706405 [Eh]

  Enthalpy, H_trans = E_trans + k_B * T
    Electronic H            0.000 [kcal/mol]        0.000 [kJ/mol]       0.00000000 [Eh]
    Translational H         1.481 [kcal/mol]        6.197 [kJ/mol]       0.00236046 [Eh]
    Rotational H            0.889 [kcal/mol]        3.718 [kJ/mol]       0.00141628 [Eh]
    Vibrational H          13.499 [kcal/mol]       56.481 [kJ/mol]       0.02151252 [Eh]
  Correction H             15.869 [kcal/mol]       66.397 [kJ/mol]       0.02528926 [Eh]
  Total H, Enthalpy at  298.15 [K]                                     -76.21611986 [Eh]

  Gibbs free energy, G = H - T * S
    Electronic G            0.000 [kcal/mol]        0.000 [kJ/mol]       0.00000000 [Eh]
    Translational G        -8.837 [kcal/mol]      -36.975 [kJ/mol]      -0.01408304 [Eh]
    Rotational G           -2.248 [kcal/mol]       -9.405 [kJ/mol]      -0.00358232 [Eh]
    Vibrational G          13.498 [kcal/mol]       56.475 [kJ/mol]       0.02151004 [Eh]
  Correction G              2.413 [kcal/mol]       10.094 [kJ/mol]       0.00384468 [Eh]
  Total G, Free enthalpy at  298.15 [K]                                -76.23756444 [Eh]

*** Psi4 exiting successfully. Buy a developer a beer!
