                               Psi4 1.3.2 release

  ==> Input File <==

--------------------------------------------------------------------------
#PSI4 file for HOH opt

memory 10 GB

molecule mol {
0 1
H
O 1 OH
H 2 OH 1 HOH

OH = 1
HOH = 104.5
}

set {
  scf_type df
  mp2_type df
  cc_type df
  freeze_core true
  basis cc-pvdz
}

optimize('hf')
frequency('hf', dertype=1)

--------------------------------------------------------------------------

    Molecular point group: c2v
  Charge       = 0
  Multiplicity = 1
  Basis Set: CC-PVDZ
    Blend: CC-PVDZ
  Basis Set: (CC-PVDZ AUX)
    Blend: CC-PVDZ-JKFIT
  @DF-RHF Final Energy:   -76.02139746465568
    Total Energy =                        -76.0213974646556778
    Molecular point group: c2v
  Basis Set: CC-PVDZ
    Blend: CC-PVDZ
  Basis Set: (CC-PVDZ AUX)
    Blend: CC-PVDZ-JKFIT
  Basis Set: CC-PVDZ
    Blend: CC-PVDZ
  Basis Set: (CC-PVDZ AUX)
    Blend: CC-PVDZ-JKFIT
  @DF-RHF Final Energy:   -76.02690347640468
    Total Energy =                        -76.0269034764046978
  Basis Set: CC-PVDZ
    Blend: CC-PVDZ
  Basis Set: (CC-PVDZ AUX)
    Blend: CC-PVDZ-JKFIT
  Basis Set: CC-PVDZ
    Blend: CC-PVDZ
  @DF-RHF Final Energy:   -76.02703134468261
    Total Energy =                        -76.0270313446826123
  @DF-RHF Final Energy:   -76.02703275582536
    Total Energy =                        -76.0270327558253598
  **** Optimization is complete! (in 4 steps) ****
    Final optimized geometry and variables:
  @DF-RHF Final Energy:   -76.02703275582488
    Total Energy =                        -76.0270327558248766
  @DF-RHF Final Energy:   -76.02703275582186
    Total Energy =                        -76.0270327558218639
  @DF-RHF Final Energy:   -76.02702622098398
    Total Energy =                        -76.0270262209839984
  @DF-RHF Final Energy:   -76.02702781367961
    Total Energy =                        -76.0270278136796094
  @DF-RHF Final Energy:   -76.02702952336169
    Total Energy =                        -76.0270295233617048
  Basis Set: (CC-PVDZ AUX)
    Blend: CC-PVDZ-JKFIT
  Basis Set: CC-PVDZ
    Blend: CC-PVDZ
  Basis Set: (CC-PVDZ AUX)
    Blend: CC-PVDZ-JKFIT
  @DF-RHF Final Energy:   -76.02702845907973
    Total Energy =                        -76.0270284590797303
  Basis Set: CC-PVDZ
    Blend: CC-PVDZ
  Basis Set: (CC-PVDZ AUX)
    Blend: CC-PVDZ-JKFIT
    Molecular point group: cs
  Charge       = 0
  Multiplicity = 1
  Basis Set: CC-PVDZ
    Blend: CC-PVDZ
  Basis Set: (CC-PVDZ AUX)
    Blend: CC-PVDZ-JKFIT

    Orbital Energies [Eh]
    ---------------------

    Doubly Occupied:

       1Ap   -20.548412     2Ap    -1.342338     3Ap    -0.705500
       4Ap    -0.568412     1App   -0.493927

  @DF-RHF Final Energy:   -76.02702435698262

   => Energetics <=

    Nuclear Repulsion Energy =              9.3019699569310781
    One-Electron Energy =                -123.3408110662139450
    Two-Electron Energy =                  38.0118167523002626
    Total Energy =                        -76.0270243569826079

  Dipole Moment: [D]
     X:     0.0000      Y:    -0.0032      Z:    -2.0444     Total:     2.0444

    Molecular point group: cs

    Geometry (in Angstrom), charge = 0, multiplicity = 1:

       Center              X                  Y                   Z               Mass
    ------------   -----------------  -----------------  -----------------  -----------------
         H            0.000000000000     0.747297217511    -0.512657616459     1.007825032230
         O            0.000000000000     0.000178917631     0.064742421816    15.994914619570
         H            0.000000000000    -0.750136770150    -0.514851600010     1.007825032230

  Basis Set: CC-PVDZ
    Blend: CC-PVDZ
  Basis Set: (CC-PVDZ AUX)
    Blend: CC-PVDZ-JKFIT

  -Total Gradient:
     Atom            X                  Y                   Z
    ------   -----------------  -----------------  -----------------
       1        0.000000000000    -0.001939246930     0.001484061723
       2        0.000000000000     0.003633706019    -0.000160552476
       3        0.000000000000    -0.001694459089    -0.001323509247

  Vibration                       7                   8                   9
  Freq [cm^-1]                1775.8969           4115.2662           4213.6822
  Irrep                           A1                  A1                  B2
  Reduced mass [u]              1.0817              1.0461              1.0820
  Force const [mDyne/A]         2.0100             10.4377             11.3185

  ==> Thermochemistry Components <==

  Entropy, S
    Electronic S            0.000 [cal/(mol K)]        0.000 [J/(mol K)]       0.00000000 [mEh/K] (multiplicity = 1)
    Translational S        34.608 [cal/(mol K)]      144.801 [J/(mol K)]       0.05515177 [mEh/K] (mol. weight = 18.0106 [u], P = 101325.00 [Pa])
    Rotational S           10.376 [cal/(mol K)]       43.413 [J/(mol K)]       0.01653508 [mEh/K] (symmetry no. = 2)
    Vibrational S           0.004 [cal/(mol K)]        0.015 [J/(mol K)]       0.00000575 [mEh/K]
  Total S                  44.988 [cal/(mol K)]      188.229 [J/(mol K)]       0.07169261 [mEh/K]
  Correction S              0.000 [cal/(mol K)]        0.000 [J/(mol K)]       0.00000000 [mEh/K]

  Constant volume heat capacity, Cv
    Electronic Cv           0.000 [cal/(mol K)]        0.000 [J/(mol K)]       0.00000000 [mEh/K]
    Translational Cv        2.981 [cal/(mol K)]       12.472 [J/(mol K)]       0.00475022 [mEh/K]
    Rotational Cv           2.981 [cal/(mol K)]       12.472 [J/(mol K)]       0.00475022 [mEh/K]
    Vibrational Cv          0.028 [cal/(mol K)]        0.116 [J/(mol K)]       0.00004415 [mEh/K]
  Total Cv                  5.989 [cal/(mol K)]       25.059 [J/(mol K)]       0.00954458 [mEh/K]
  Correction Cv             0.000 [cal/(mol K)]        0.000 [J/(mol K)]       0.00000000 [mEh/K]

  Constant pressure heat capacity, Cp
    Electronic Cp           0.000 [cal/(mol K)]        0.000 [J/(mol K)]       0.00000000 [mEh/K]
    Translational Cp        4.968 [cal/(mol K)]       20.786 [J/(mol K)]       0.00791703 [mEh/K]
    Rotational Cp           2.981 [cal/(mol K)]       12.472 [J/(mol K)]       0.00475022 [mEh/K]
    Vibrational Cp          0.028 [cal/(mol K)]        0.116 [J/(mol K)]       0.00004415 [mEh/K]
  Total Cp                  7.977 [cal/(mol K)]       33.374 [J/(mol K)]       0.01271139 [mEh/K]
  Correction Cp             0.000 [cal/(mol K)]        0.000 [J/(mol K)]       0.00000000 [mEh/K]

  ==> Thermochemistry Energy Analysis <==

  Raw electronic energy, E0
  Total E0, Electronic energy at well bottom at 0 [K]                  -76.02703276 [Eh]

  Zero-point energy, ZPE_vib = Sum_i nu_i / 2
    Electronic ZPE          0.000 [kcal/mol]        0.000 [kJ/mol]       0.00000000 [Eh]
    Translational ZPE       0.000 [kcal/mol]        0.000 [kJ/mol]       0.00000000 [Eh]
    Rotational ZPE          0.000 [kcal/mol]        0.000 [kJ/mol]       0.00000000 [Eh]
    Vibrational ZPE        14.446 [kcal/mol]       60.440 [kJ/mol]       0.02302053 [Eh]        5052.423 [cm^-1]
  Correction ZPE           14.446 [kcal/mol]       60.440 [kJ/mol]       0.02302053 [Eh]        5052.423 [cm^-1]
  Total ZPE, Electronic energy at 0 [K]                                -76.00401222 [Eh]

  Thermal Energy, E (includes ZPE)
    Electronic E            0.000 [kcal/mol]        0.000 [kJ/mol]       0.00000000 [Eh]
    Translational E         0.889 [kcal/mol]        3.718 [kJ/mol]       0.00141628 [Eh]
    Rotational E            0.889 [kcal/mol]        3.718 [kJ/mol]       0.00141628 [Eh]
    Vibrational E          14.447 [kcal/mol]       60.444 [kJ/mol]       0.02302207 [Eh]
  Correction E             16.224 [kcal/mol]       67.881 [kJ/mol]       0.02585462 [Eh]
  Total E, Electronic energy at  298.15 [K]                            -76.00117814 [Eh]

  Enthalpy, H_trans = E_trans + k_B * T
    Electronic H            0.000 [kcal/mol]        0.000 [kJ/mol]       0.00000000 [Eh]
    Translational H         1.481 [kcal/mol]        6.197 [kJ/mol]       0.00236046 [Eh]
    Rotational H            0.889 [kcal/mol]        3.718 [kJ/mol]       0.00141628 [Eh]
    Vibrational H          14.447 [kcal/mol]       60.444 [kJ/mol]       0.02302207 [Eh]
  Correction H             16.817 [kcal/mol]       70.360 [kJ/mol]       0.02679881 [Eh]
  Total H, Enthalpy at  298.15 [K]                                     -76.00023395 [Eh]

  Gibbs free energy, G = H - T * S
    Electronic G            0.000 [kcal/mol]        0.000 [kJ/mol]       0.00000000 [Eh]
    Translational G        -8.837 [kcal/mol]      -36.975 [kJ/mol]      -0.01408304 [Eh]
    Rotational G           -2.205 [kcal/mol]       -9.225 [kJ/mol]      -0.00351366 [Eh]
    Vibrational G          14.445 [kcal/mol]       60.440 [kJ/mol]       0.02302035 [Eh]
  Correction G              3.403 [kcal/mol]       14.240 [kJ/mol]       0.00542365 [Eh]
  Total G, Free enthalpy at  298.15 [K]                                -76.02160910 [Eh]

*** Psi4 exiting successfully. Buy a developer a beer!
