                               Psi4 1.3.2 release

  ==> Input File <==

--------------------------------------------------------------------------
#PSI4 file for HOH opt

memory 10 GB

molecule mol {
0 1
H
O 1 OH
H 2 OH 1 HOH

OH = 1
HOH = 104.5
}

set {
  scf_type df
  mp2_type df
  cc_type df
  freeze_core true
  basis cc-pvtz
}

optimize('hf')
frequencies('hf', dertype=1)

--------------------------------------------------------------------------

    Molecular point group: c2v
  Charge       = 0
  Multiplicity = 1
  Basis Set: CC-PVTZ
    Blend: CC-PVTZ
  Basis Set: (CC-PVTZ AUX)
    Blend: CC-PVTZ-JKFIT
  @DF-RHF Final Energy:   -76.05098620391820
    Total Energy =                        -76.0509862039181996
    Molecular point group: c2v
  Basis Set: CC-PVTZ
    Blend: CC-PVTZ
  Basis Set: (CC-PVTZ AUX)
    Blend: CC-PVTZ-JKFIT
  Basis Set: CC-PVTZ
    Blend: CC-PVTZ
  Basis Set: (CC-PVTZ AUX)
    Blend: CC-PVTZ-JKFIT
  @DF-RHF Final Energy:   -76.05763073476344
    Total Energy =                        -76.0576307347634355
  Basis Set: CC-PVTZ
    Blend: CC-PVTZ
  Basis Set: (CC-PVTZ AUX)
    Blend: CC-PVTZ-JKFIT
  Basis Set: CC-PVTZ
    Blend: CC-PVTZ
  @DF-RHF Final Energy:   -76.05776215582080
    Total Energy =                        -76.0577621558207966
  @DF-RHF Final Energy:   -76.05776310216275
    Total Energy =                        -76.0577631021627383
  **** Optimization is complete! (in 4 steps) ****
    Final optimized geometry and variables:
  @DF-RHF Final Energy:   -76.05776310216319
    Total Energy =                        -76.0577631021631930
  @DF-RHF Final Energy:   -76.05776310216307
    Total Energy =                        -76.0577631021630793
  @DF-RHF Final Energy:   -76.05775668320305
    Total Energy =                        -76.0577566832030527
  @DF-RHF Final Energy:   -76.05775786156427
    Total Energy =                        -76.0577578615642693
  @DF-RHF Final Energy:   -76.05775986303647
    Total Energy =                        -76.0577598630364662
  Basis Set: (CC-PVTZ AUX)
    Blend: CC-PVTZ-JKFIT
  Basis Set: CC-PVTZ
    Blend: CC-PVTZ
  Basis Set: (CC-PVTZ AUX)
    Blend: CC-PVTZ-JKFIT
  @DF-RHF Final Energy:   -76.05775897073249
    Total Energy =                        -76.0577589707324933
  Basis Set: CC-PVTZ
    Blend: CC-PVTZ
  Basis Set: (CC-PVTZ AUX)
    Blend: CC-PVTZ-JKFIT
    Molecular point group: cs
  Charge       = 0
  Multiplicity = 1
  Basis Set: CC-PVTZ
    Blend: CC-PVTZ
  Basis Set: (CC-PVTZ AUX)
    Blend: CC-PVTZ-JKFIT

    Orbital Energies [Eh]
    ---------------------

    Doubly Occupied:

       1Ap   -20.551010     2Ap    -1.353350     3Ap    -0.721991
       4Ap    -0.577902     1App   -0.505391

  @DF-RHF Final Energy:   -76.05775464513287

   => Energetics <=

    Nuclear Repulsion Energy =              9.3545683895517442
    One-Electron Energy =                -123.4053562161230957
    Two-Electron Energy =                  37.9930331814384772
    Total Energy =                        -76.0577546451328743

  Dipole Moment: [D]
     X:     0.0000      Y:    -0.0035      Z:    -1.9877     Total:     1.9877

    Molecular point group: cs

    Geometry (in Angstrom), charge = 0, multiplicity = 1:

       Center              X                  Y                   Z               Mass
    ------------   -----------------  -----------------  -----------------  -----------------
         H            0.000000000000     0.749715540418    -0.501577691223     1.007825032230
         O            0.000000000000     0.000180453542     0.063343883240    15.994914619570
         H            0.000000000000    -0.752579469081    -0.503735703165     1.007825032230

  Basis Set: CC-PVTZ
    Blend: CC-PVTZ
  Basis Set: (CC-PVTZ AUX)
    Blend: CC-PVTZ-JKFIT

  -Total Gradient:
     Atom            X                  Y                   Z
    ------   -----------------  -----------------  -----------------
       1        0.000000000000    -0.001938322853     0.001459092580
       2        0.000000000000     0.003690271611    -0.000137484286
       3        0.000000000000    -0.001751948758    -0.001321608294

  Vibration                       7                   8                   9
  Freq [cm^-1]                1752.7590           4128.2388           4228.2539
  Irrep                           A1                  A1                  B2
  Reduced mass [u]              1.0830              1.0448              1.0833
  Force const [mDyne/A]         1.9604             10.4912             11.4114

  ==> Thermochemistry Components <==

  Entropy, S
    Electronic S            0.000 [cal/(mol K)]        0.000 [J/(mol K)]       0.00000000 [mEh/K] (multiplicity = 1)
    Translational S        34.608 [cal/(mol K)]      144.801 [J/(mol K)]       0.05515177 [mEh/K] (mol. weight = 18.0106 [u], P = 101325.00 [Pa])
    Rotational S           10.328 [cal/(mol K)]       43.214 [J/(mol K)]       0.01645938 [mEh/K] (symmetry no. = 2)
    Vibrational S           0.004 [cal/(mol K)]        0.017 [J/(mol K)]       0.00000636 [mEh/K]
  Total S                  44.941 [cal/(mol K)]      188.032 [J/(mol K)]       0.07161751 [mEh/K]
  Correction S              0.000 [cal/(mol K)]        0.000 [J/(mol K)]       0.00000000 [mEh/K]

  Constant volume heat capacity, Cv
    Electronic Cv           0.000 [cal/(mol K)]        0.000 [J/(mol K)]       0.00000000 [mEh/K]
    Translational Cv        2.981 [cal/(mol K)]       12.472 [J/(mol K)]       0.00475022 [mEh/K]
    Rotational Cv           2.981 [cal/(mol K)]       12.472 [J/(mol K)]       0.00475022 [mEh/K]
    Vibrational Cv          0.030 [cal/(mol K)]        0.126 [J/(mol K)]       0.00004809 [mEh/K]
  Total Cv                  5.992 [cal/(mol K)]       25.070 [J/(mol K)]       0.00954852 [mEh/K]
  Correction Cv             0.000 [cal/(mol K)]        0.000 [J/(mol K)]       0.00000000 [mEh/K]

  Constant pressure heat capacity, Cp
    Electronic Cp           0.000 [cal/(mol K)]        0.000 [J/(mol K)]       0.00000000 [mEh/K]
    Translational Cp        4.968 [cal/(mol K)]       20.786 [J/(mol K)]       0.00791703 [mEh/K]
    Rotational Cp           2.981 [cal/(mol K)]       12.472 [J/(mol K)]       0.00475022 [mEh/K]
    Vibrational Cp          0.030 [cal/(mol K)]        0.126 [J/(mol K)]       0.00004809 [mEh/K]
  Total Cp                  7.979 [cal/(mol K)]       33.384 [J/(mol K)]       0.01271533 [mEh/K]
  Correction Cp             0.000 [cal/(mol K)]        0.000 [J/(mol K)]       0.00000000 [mEh/K]

  ==> Thermochemistry Energy Analysis <==

  Raw electronic energy, E0
  Total E0, Electronic energy at well bottom at 0 [K]                  -76.05776310 [Eh]

  Zero-point energy, ZPE_vib = Sum_i nu_i / 2
    Electronic ZPE          0.000 [kcal/mol]        0.000 [kJ/mol]       0.00000000 [Eh]
    Translational ZPE       0.000 [kcal/mol]        0.000 [kJ/mol]       0.00000000 [Eh]
    Rotational ZPE          0.000 [kcal/mol]        0.000 [kJ/mol]       0.00000000 [Eh]
    Vibrational ZPE        14.452 [kcal/mol]       60.467 [kJ/mol]       0.02303057 [Eh]        5054.626 [cm^-1]
  Correction ZPE           14.452 [kcal/mol]       60.467 [kJ/mol]       0.02303057 [Eh]        5054.626 [cm^-1]
  Total ZPE, Electronic energy at 0 [K]                                -76.03473253 [Eh]

  Thermal Energy, E (includes ZPE)
    Electronic E            0.000 [kcal/mol]        0.000 [kJ/mol]       0.00000000 [Eh]
    Translational E         0.889 [kcal/mol]        3.718 [kJ/mol]       0.00141628 [Eh]
    Rotational E            0.889 [kcal/mol]        3.718 [kJ/mol]       0.00141628 [Eh]
    Vibrational E          14.453 [kcal/mol]       60.471 [kJ/mol]       0.02303226 [Eh]
  Correction E             16.230 [kcal/mol]       67.908 [kJ/mol]       0.02586482 [Eh]
  Total E, Electronic energy at  298.15 [K]                            -76.03189828 [Eh]

  Enthalpy, H_trans = E_trans + k_B * T
    Electronic H            0.000 [kcal/mol]        0.000 [kJ/mol]       0.00000000 [Eh]
    Translational H         1.481 [kcal/mol]        6.197 [kJ/mol]       0.00236046 [Eh]
    Rotational H            0.889 [kcal/mol]        3.718 [kJ/mol]       0.00141628 [Eh]
    Vibrational H          14.453 [kcal/mol]       60.471 [kJ/mol]       0.02303226 [Eh]
  Correction H             16.823 [kcal/mol]       70.387 [kJ/mol]       0.02680900 [Eh]
  Total H, Enthalpy at  298.15 [K]                                     -76.03095410 [Eh]

  Gibbs free energy, G = H - T * S
    Electronic G            0.000 [kcal/mol]        0.000 [kJ/mol]       0.00000000 [Eh]
    Translational G        -8.837 [kcal/mol]      -36.975 [kJ/mol]      -0.01408304 [Eh]
    Rotational G           -2.191 [kcal/mol]       -9.166 [kJ/mol]      -0.00349109 [Eh]
    Vibrational G          14.452 [kcal/mol]       60.466 [kJ/mol]       0.02303037 [Eh]
  Correction G              3.424 [kcal/mol]       14.325 [kJ/mol]       0.00545624 [Eh]
  Total G, Free enthalpy at  298.15 [K]                                -76.05230686 [Eh]

*** Psi4 exiting successfully. Buy a developer a beer!
