                               Psi4 1.3.2 release

  ==> Input File <==

--------------------------------------------------------------------------
# PSI4 file for H2 RHF energy

memory 10 GB

molecule mol {
0 1
H
H 1 R
}

Rvals = [.25,.5,.75,1,1.25,1.5,2,3,4]

table = Table(rows=["R"], cols=["E(HF)"])

set {
  scf_type df
  mp2_type df
  cc_type df
  freeze_core true
}

for R in Rvals:
    mol.R = R
    erhf = energy('hf/sto-3g')
    table[R] = [erhf]

print_out('Table of Results \n')
print_out(str(table))

--------------------------------------------------------------------------

    Molecular point group: d2h
  Charge       = 0
  Multiplicity = 1
  Basis Set: STO-3G
    Blend: STO-3G
  Basis Set: (STO-3G AUX)
    Blend: DEF2-SVP-JKFIT
  @DF-RHF Final Energy:    -0.30503538613501
    Total Energy =                         -0.3050353861350088
    Molecular point group: d2h
  Basis Set: STO-3G
    Blend: STO-3G
  Basis Set: (STO-3G AUX)
    Blend: DEF2-SVP-JKFIT
  @DF-RHF Final Energy:    -1.04302277948899
    Total Energy =                         -1.0430227794889948
  Basis Set: STO-3G
    Blend: STO-3G
  Basis Set: (STO-3G AUX)
    Blend: DEF2-SVP-JKFIT
  @DF-RHF Final Energy:    -1.11617538632217
    Total Energy =                         -1.1161753863221724
  Basis Set: STO-3G
    Blend: STO-3G
  Basis Set: (STO-3G AUX)
    Blend: DEF2-SVP-JKFIT
  @DF-RHF Final Energy:    -1.06613556623701
    Total Energy =                         -1.0661355662370104
  @DF-RHF Final Energy:    -0.98916072205151
    Total Energy =                         -0.9891607220515095
  Basis Set: STO-3G
    Blend: STO-3G
  Basis Set: (STO-3G AUX)
    Blend: DEF2-SVP-JKFIT
  @DF-RHF Final Energy:    -0.91095204286356
    Total Energy =                         -0.9109520428635615
  Basis Set: STO-3G
    Blend: STO-3G
  Basis Set: (STO-3G AUX)
    Blend: DEF2-SVP-JKFIT
  @DF-RHF Final Energy:    -0.78390523203330
    Total Energy =                         -0.7839052320332951
  Multiplicity = 1
  Basis Set: STO-3G
    Blend: STO-3G
  Basis Set: (STO-3G AUX)
    Blend: DEF2-SVP-JKFIT
  @DF-RHF Final Energy:    -0.65619803104531
    Total Energy =                         -0.6561980310453069
    Molecular point group: d2h

    Geometry (in Angstrom), charge = 0, multiplicity = 1:

       Center              X                  Y                   Z               Mass
    ------------   -----------------  -----------------  -----------------  -----------------
         H            0.000000000000     0.000000000000    -2.000000000000     1.007825032230
         H            0.000000000000     0.000000000000     2.000000000000     1.007825032230

  Charge       = 0
  Multiplicity = 1
  Basis Set: STO-3G
    Blend: STO-3G
  Basis Set: (STO-3G AUX)
    Blend: DEF2-SVP-JKFIT

    Orbital Energies [Eh]
    ---------------------

    Doubly Occupied:

       1Ag    -0.147327

  @DF-RHF Final Energy:    -0.61501787485178

   => Energetics <=

    Nuclear Repulsion Energy =              0.1322943026674999
    One-Electron Energy =                  -1.1999707951658622
    Two-Electron Energy =                   0.4526586176465827
    Total Energy =                         -0.6150178748517797

  Dipole Moment: [D]
     X:     0.0000      Y:     0.0000      Z:     0.0000     Total:     0.0000

*** Psi4 exiting successfully. Buy a developer a beer!
