                               Psi4 1.3.2 release

  ==> Input File <==

--------------------------------------------------------------------------
#PSI4 file for HOH opt

memory 10 GB

molecule mol {
0 1
H
O 1 OH
H 2 OH 1 HOH

OH = 1
HOH = 104.5
}

set {
  scf_type df
  mp2_type df
  cc_type df
  freeze_core true
  basis cc-pvdz
}

optimize('mp2')
frequencies('mp2')

--------------------------------------------------------------------------

    Molecular point group: c2v
  Charge       = 0
  Multiplicity = 1
  Basis Set: CC-PVDZ
    Blend: CC-PVDZ
  Basis Set: (CC-PVDZ AUX)
    Blend: CC-PVDZ-JKFIT
  @DF-RHF Final Energy:   -76.02139746465566
    Total Energy =                        -76.0213974646556494
  Basis Set: (CC-PVDZ AUX)
    Blend: CC-PVDZ-RI
    Molecular point group: c2v
  Basis Set: CC-PVDZ
    Blend: CC-PVDZ
  Basis Set: (CC-PVDZ AUX)
    Blend: CC-PVDZ-JKFIT
  Basis Set: (CC-PVDZ AUX)
    Blend: CC-PVDZ-JKFIT
	 Reference Energy          =     -76.0213974646556636 [Eh]
	 Singles Energy            =      -0.0000000000000000 [Eh]
	 Same-Spin Energy          =      -0.0512503270302936 [Eh]
	 Opposite-Spin Energy      =      -0.1534098174126730 [Eh]
	 Correlation Energy        =      -0.2046601444429666 [Eh]
	 Total Energy              =     -76.2260576090986319 [Eh]
	 SCS Total Energy          =     -76.2225726878942993 [Eh]
  @DF-RHF Final Energy:   -76.02605292777598
    Total Energy =                        -76.0260529277759929
  @DF-RHF Final Energy:   -76.02615813490966
    Total Energy =                        -76.0261581349096502
  @DF-RHF Final Energy:   -76.02619861110196
    Total Energy =                        -76.0261986111019610
  **** Optimization is complete! (in 4 steps) ****
    Final optimized geometry and variables:
  @DF-RHF Final Energy:   -76.02619861110124
    Total Energy =                        -76.0261986111012362
  @DF-RHF Final Energy:   -76.02619861110014
    Total Energy =                        -76.0261986111001420
  @DF-RHF Final Energy:   -76.02628091964138
    Total Energy =                        -76.0262809196413798
  @DF-RHF Final Energy:   -76.02610606315557
    Total Energy =                        -76.0261060631555665
  @DF-RHF Final Energy:   -76.02608485002739
    Total Energy =                        -76.0260848500273880
  @DF-RHF Final Energy:   -76.02630522158879
    Total Energy =                        -76.0263052215887853
    Molecular point group: cs
  Charge       = 0
  Multiplicity = 1
  Basis Set: CC-PVDZ
    Blend: CC-PVDZ
  Basis Set: (CC-PVDZ AUX)
    Blend: CC-PVDZ-JKFIT

    Orbital Energies [Eh]
    ---------------------

    Doubly Occupied:

       1Ap   -20.553192     2Ap    -1.334971     3Ap    -0.690278
       4Ap    -0.570530     1App   -0.493559

  @DF-RHF Final Energy:   -76.02619124870722

   => Energetics <=

    Nuclear Repulsion Energy =              9.1287245295637689
    One-Electron Energy =                -123.0247723894747622
    Two-Electron Energy =                  37.8698566112037653
    Total Energy =                        -76.0261912487072209

  Dipole Moment: [D]
     X:     0.0000      Y:    -0.0028      Z:    -2.1032     Total:     2.1032

  Basis Set: (CC-PVDZ AUX)
    Blend: CC-PVDZ-RI
    Molecular point group: cs

    Geometry (in Angstrom), charge = 0, multiplicity = 1:

       Center              X                  Y                   Z               Mass
    ------------   -----------------  -----------------  -----------------  -----------------
         H            0.000000000000     0.747874462961    -0.538683787891     1.007825032230
         O            0.000000000000     0.000175825747     0.068026589703    15.994914619570
         H            0.000000000000    -0.750664945158    -0.540947556198     1.007825032230

  Basis Set: CC-PVDZ
    Blend: CC-PVDZ
  Basis Set: (CC-PVDZ AUX)
    Blend: CC-PVDZ-JKFIT
  Basis Set: (CC-PVDZ AUX)
    Blend: CC-PVDZ-JKFIT
	 Reference Energy          =     -76.0261912487072209 [Eh]
	 Singles Energy            =      -0.0000000000000000 [Eh]
	 Same-Spin Energy          =      -0.0509317625181670 [Eh]
	 Opposite-Spin Energy      =      -0.1514852945659709 [Eh]
	 Correlation Energy        =      -0.2024170570841379 [Eh]
	 Total Energy              =     -76.2286083057913544 [Eh]

	 ================> DF-SCS-MP2 Energies <==================
	-----------------------------------------------------------
	 SCS Same-Spin Scale       =       0.3333333333333333 [-]
	 SCS Opposite-Spin Scale   =       1.2000000000000000 [-]
	 SCS Same-Spin Energy      =      -0.0169772541727223 [Eh]
	 SCS Opposite-Spin Energy  =      -0.1817823534791651 [Eh]
	 SCS Correlation Energy    =      -0.1987596076518874 [Eh]
	 SCS Total Energy          =     -76.2249508563591149 [Eh]
	-----------------------------------------------------------

  -Total Gradient:
     Atom            X                  Y                   Z
    ------   -----------------  -----------------  -----------------
       1        0.000000000000    -0.001638625825     0.001325447858
       2        0.000000000000     0.003172583879    -0.000077145411
       3        0.000000000000    -0.001533958054    -0.001248302447

  Vibration                       7                   8                   9
  Freq [cm^-1]                1678.0329           3852.3768           3971.7263
  Irrep                           A1                  A1                  B2
  Reduced mass [u]              1.0810              1.0467              1.0793
  Force const [mDyne/A]         1.7934              9.1526             10.0307

  ==> Thermochemistry Components <==

  Entropy, S
    Electronic S            0.000 [cal/(mol K)]        0.000 [J/(mol K)]       0.00000000 [mEh/K] (multiplicity = 1)
    Translational S        34.608 [cal/(mol K)]      144.801 [J/(mol K)]       0.05515177 [mEh/K] (mol. weight = 18.0106 [u], P = 101325.00 [Pa])
    Rotational S           10.512 [cal/(mol K)]       43.981 [J/(mol K)]       0.01675166 [mEh/K] (symmetry no. = 2)
    Vibrational S           0.006 [cal/(mol K)]        0.023 [J/(mol K)]       0.00000877 [mEh/K]
  Total S                  45.126 [cal/(mol K)]      188.805 [J/(mol K)]       0.07191220 [mEh/K]
  Correction S              0.000 [cal/(mol K)]        0.000 [J/(mol K)]       0.00000000 [mEh/K]

  Constant volume heat capacity, Cv
    Electronic Cv           0.000 [cal/(mol K)]        0.000 [J/(mol K)]       0.00000000 [mEh/K]
    Translational Cv        2.981 [cal/(mol K)]       12.472 [J/(mol K)]       0.00475022 [mEh/K]
    Rotational Cv           2.981 [cal/(mol K)]       12.472 [J/(mol K)]       0.00475022 [mEh/K]
    Vibrational Cv          0.040 [cal/(mol K)]        0.166 [J/(mol K)]       0.00006323 [mEh/K]
  Total Cv                  6.001 [cal/(mol K)]       25.109 [J/(mol K)]       0.00956366 [mEh/K]
  Correction Cv             0.000 [cal/(mol K)]        0.000 [J/(mol K)]       0.00000000 [mEh/K]

  Constant pressure heat capacity, Cp
    Electronic Cp           0.000 [cal/(mol K)]        0.000 [J/(mol K)]       0.00000000 [mEh/K]
    Translational Cp        4.968 [cal/(mol K)]       20.786 [J/(mol K)]       0.00791703 [mEh/K]
    Rotational Cp           2.981 [cal/(mol K)]       12.472 [J/(mol K)]       0.00475022 [mEh/K]
    Vibrational Cp          0.040 [cal/(mol K)]        0.166 [J/(mol K)]       0.00006323 [mEh/K]
  Total Cp                  7.988 [cal/(mol K)]       33.424 [J/(mol K)]       0.01273047 [mEh/K]
  Correction Cp             0.000 [cal/(mol K)]        0.000 [J/(mol K)]       0.00000000 [mEh/K]

  ==> Thermochemistry Energy Analysis <==

  Raw electronic energy, E0
  Total E0, Electronic energy at well bottom at 0 [K]                  -76.22861577 [Eh]

  Zero-point energy, ZPE_vib = Sum_i nu_i / 2
    Electronic ZPE          0.000 [kcal/mol]        0.000 [kJ/mol]       0.00000000 [Eh]
    Translational ZPE       0.000 [kcal/mol]        0.000 [kJ/mol]       0.00000000 [Eh]
    Rotational ZPE          0.000 [kcal/mol]        0.000 [kJ/mol]       0.00000000 [Eh]
    Vibrational ZPE        13.584 [kcal/mol]       56.835 [kJ/mol]       0.02164746 [Eh]        4751.068 [cm^-1]
  Correction ZPE           13.584 [kcal/mol]       56.835 [kJ/mol]       0.02164746 [Eh]        4751.068 [cm^-1]
  Total ZPE, Electronic energy at 0 [K]                                -76.20696831 [Eh]

  Thermal Energy, E (includes ZPE)
    Electronic E            0.000 [kcal/mol]        0.000 [kJ/mol]       0.00000000 [Eh]
    Translational E         0.889 [kcal/mol]        3.718 [kJ/mol]       0.00141628 [Eh]
    Rotational E            0.889 [kcal/mol]        3.718 [kJ/mol]       0.00141628 [Eh]
    Vibrational E          13.585 [kcal/mol]       56.842 [kJ/mol]       0.02164979 [Eh]
  Correction E             15.363 [kcal/mol]       64.278 [kJ/mol]       0.02448234 [Eh]
  Total E, Electronic energy at  298.15 [K]                            -76.20413343 [Eh]

  Enthalpy, H_trans = E_trans + k_B * T
    Electronic H            0.000 [kcal/mol]        0.000 [kJ/mol]       0.00000000 [Eh]
    Translational H         1.481 [kcal/mol]        6.197 [kJ/mol]       0.00236046 [Eh]
    Rotational H            0.889 [kcal/mol]        3.718 [kJ/mol]       0.00141628 [Eh]
    Vibrational H          13.585 [kcal/mol]       56.842 [kJ/mol]       0.02164979 [Eh]
  Correction H             15.955 [kcal/mol]       66.757 [kJ/mol]       0.02542652 [Eh]
  Total H, Enthalpy at  298.15 [K]                                     -76.20318924 [Eh]

  Gibbs free energy, G = H - T * S
    Electronic G            0.000 [kcal/mol]        0.000 [kJ/mol]       0.00000000 [Eh]
    Translational G        -8.837 [kcal/mol]      -36.975 [kJ/mol]      -0.01408304 [Eh]
    Rotational G           -2.245 [kcal/mol]       -9.395 [kJ/mol]      -0.00357823 [Eh]
    Vibrational G          13.584 [kcal/mol]       56.835 [kJ/mol]       0.02164717 [Eh]
  Correction G              2.501 [kcal/mol]       10.465 [kJ/mol]       0.00398590 [Eh]
  Total G, Free enthalpy at  298.15 [K]                                -76.22462987 [Eh]

*** Psi4 exiting successfully. Buy a developer a beer!
