                               Psi4 1.3.2 release

  ==> Input File <==

--------------------------------------------------------------------------
#PSI4 file for HOH opt

memory 10 GB

molecule mol {
0 1
H
O 1 OH
H 2 OH 1 HOH

OH = 1
HOH = 104.5
}

set {
  scf_type df
  mp2_type df
  cc_type df
  freeze_core true
  basis cc-pvtz
}

optimize('ccsd(t)')
frequencies('ccsd(t)')

--------------------------------------------------------------------------

    Molecular point group: c2v
  Charge       = 0
  Multiplicity = 1
  Basis Set: CC-PVTZ
    Blend: CC-PVTZ
  Basis Set: (CC-PVTZ AUX)
    Blend: CC-PVTZ-JKFIT
  @DF-RHF Final Energy:   -76.05098620391831
    Total Energy =                        -76.0509862039183133
	DF-MP2 Total Energy (a.u.)         :   -76.31553267025140
    Molecular point group: c2v
  Basis Set: CC-PVTZ
    Blend: CC-PVTZ
  Basis Set: (CC-PVTZ AUX)
    Blend: CC-PVTZ-JKFIT
  @DF-RHF Final Energy:   -76.05665947702255
    Total Energy =                        -76.0566594770225493
	DF-MP2 Total Energy (a.u.)         :   -76.31853439063681
  Basis Set: CC-PVTZ
    Blend: CC-PVTZ
  Basis Set: (CC-PVTZ AUX)
    Blend: CC-PVTZ-JKFIT
  @DF-RHF Final Energy:   -76.05692340156165
    Total Energy =                        -76.0569234015616473
	DF-MP2 Total Energy (a.u.)         :   -76.31859434819376
  Basis Set: CC-PVTZ
    Blend: CC-PVTZ
  Basis Set: (CC-PVTZ AUX)
    Blend: CC-PVTZ-JKFIT
  @DF-RHF Final Energy:   -76.05693896586098
    Total Energy =                        -76.0569389658609651
	DF-MP2 Total Energy (a.u.)         :   -76.31859436820365
  **** Optimization is complete! (in 4 steps) ****
    Final optimized geometry and variables:
  @DF-RHF Final Energy:   -76.05693896586054
    Total Energy =                        -76.0569389658605530
	DF-MP2 Total Energy (a.u.)         :   -76.31859436820275
  @DF-RHF Final Energy:   -76.05693896586072
    Total Energy =                        -76.0569389658607236
	DF-MP2 Total Energy (a.u.)         :   -76.31859436820292
  @DF-RHF Final Energy:   -76.05702927525724
    Total Energy =                        -76.0570292752572357
	DF-MP2 Total Energy (a.u.)         :   -76.31859201475847
  Basis Set: CC-PVTZ
    Blend: CC-PVTZ
  Basis Set: (CC-PVTZ AUX)
    Blend: CC-PVTZ-JKFIT
  @DF-RHF Final Energy:   -76.05683827285657
    Total Energy =                        -76.0568382728565666
	DF-MP2 Total Energy (a.u.)         :   -76.31858659692327
  Basis Set: CC-PVTZ
    Blend: CC-PVTZ
  Basis Set: (CC-PVTZ AUX)
    Blend: CC-PVTZ-JKFIT
  @DF-RHF Final Energy:   -76.05682770974960
    Total Energy =                        -76.0568277097495979
	DF-MP2 Total Energy (a.u.)         :   -76.31859004005204
  Multiplicity = 1
  Basis Set: CC-PVTZ
    Blend: CC-PVTZ
  Basis Set: (CC-PVTZ AUX)
    Blend: CC-PVTZ-JKFIT
  @DF-RHF Final Energy:   -76.05704323142388
    Total Energy =                        -76.0570432314238758
	DF-MP2 Total Energy (a.u.)         :   -76.31859221167731
    Molecular point group: cs

    Geometry (in Angstrom), charge = 0, multiplicity = 1:

       Center              X                  Y                   Z               Mass
    ------------   -----------------  -----------------  -----------------  -----------------
         H            0.000000000000     0.752460553652    -0.525934715570     1.007825032230
         O            0.000000000000     0.000177749263     0.066417264572    15.994914619570
         H            0.000000000000    -0.755281563449    -0.528155470839     1.007825032230

  Charge       = 0
  Multiplicity = 1
  Basis Set: CC-PVTZ
    Blend: CC-PVTZ
  Basis Set: (CC-PVTZ AUX)
    Blend: CC-PVTZ-JKFIT

    Orbital Energies [Eh]
    ---------------------

    Doubly Occupied:

       1Ap   -20.555591     2Ap    -1.345244     3Ap    -0.706797
       4Ap    -0.579158     1App   -0.504606

  @DF-RHF Final Energy:   -76.05693155929769

   => Energetics <=

    Nuclear Repulsion Energy =              9.1758053164398046
    One-Electron Energy =                -123.0826822232547642
    Two-Electron Energy =                  37.8499453475172771
    Total Energy =                        -76.0569315592976807

  Dipole Moment: [D]
     X:     0.0000      Y:    -0.0032      Z:    -2.0417     Total:     2.0417

	DF-MP2 Total Energy (a.u.)         :   -76.31858690769434

  -Total Gradient:
     Atom            X                  Y                   Z
    ------   -----------------  -----------------  -----------------
       1        0.000000000000    -0.001603732571     0.001259670526
       2        0.000000000000     0.003165745452    -0.000028734786
       3       -0.000000000000    -0.001562012880    -0.001230935740

  Vibration                       7                   8                   9
  Freq [cm^-1]                1668.9568           3840.9041           3945.4867
  Irrep                           A                   A                   A
  Reduced mass [u]              1.0826              1.0453              1.0809
  Force const [mDyne/A]         1.7766              9.0855              9.9141

  ==> Thermochemistry Components <==

  Entropy, S
    Electronic S            0.000 [cal/(mol K)]        0.000 [J/(mol K)]       0.00000000 [mEh/K] (multiplicity = 1)
    Translational S        34.608 [cal/(mol K)]      144.801 [J/(mol K)]       0.05515177 [mEh/K] (mol. weight = 18.0106 [u], P = 101325.00 [Pa])
    Rotational S           10.467 [cal/(mol K)]       43.794 [J/(mol K)]       0.01668016 [mEh/K] (symmetry no. = 2)
    Vibrational S           0.006 [cal/(mol K)]        0.024 [J/(mol K)]       0.00000912 [mEh/K]
  Total S                  45.081 [cal/(mol K)]      188.619 [J/(mol K)]       0.07184105 [mEh/K]
  Correction S              0.000 [cal/(mol K)]        0.000 [J/(mol K)]       0.00000000 [mEh/K]

  Constant volume heat capacity, Cv
    Electronic Cv           0.000 [cal/(mol K)]        0.000 [J/(mol K)]       0.00000000 [mEh/K]
    Translational Cv        2.981 [cal/(mol K)]       12.472 [J/(mol K)]       0.00475022 [mEh/K]
    Rotational Cv           2.981 [cal/(mol K)]       12.472 [J/(mol K)]       0.00475022 [mEh/K]
    Vibrational Cv          0.041 [cal/(mol K)]        0.172 [J/(mol K)]       0.00006535 [mEh/K]
  Total Cv                  6.003 [cal/(mol K)]       25.115 [J/(mol K)]       0.00956578 [mEh/K]
  Correction Cv             0.000 [cal/(mol K)]        0.000 [J/(mol K)]       0.00000000 [mEh/K]

  Constant pressure heat capacity, Cp
    Electronic Cp           0.000 [cal/(mol K)]        0.000 [J/(mol K)]       0.00000000 [mEh/K]
    Translational Cp        4.968 [cal/(mol K)]       20.786 [J/(mol K)]       0.00791703 [mEh/K]
    Rotational Cp           2.981 [cal/(mol K)]       12.472 [J/(mol K)]       0.00475022 [mEh/K]
    Vibrational Cp          0.041 [cal/(mol K)]        0.172 [J/(mol K)]       0.00006535 [mEh/K]
  Total Cp                  7.990 [cal/(mol K)]       33.429 [J/(mol K)]       0.01273260 [mEh/K]
  Correction Cp             0.000 [cal/(mol K)]        0.000 [J/(mol K)]       0.00000000 [mEh/K]

  ==> Thermochemistry Energy Analysis <==

  Raw electronic energy, E0
  Total E0, Electronic energy at well bottom at 0 [K]                  -76.33235585 [Eh]

  Zero-point energy, ZPE_vib = Sum_i nu_i / 2
    Electronic ZPE          0.000 [kcal/mol]        0.000 [kJ/mol]       0.00000000 [Eh]
    Translational ZPE       0.000 [kcal/mol]        0.000 [kJ/mol]       0.00000000 [Eh]
    Rotational ZPE          0.000 [kcal/mol]        0.000 [kJ/mol]       0.00000000 [Eh]
    Vibrational ZPE        13.517 [kcal/mol]       56.556 [kJ/mol]       0.02154087 [Eh]        4727.674 [cm^-1]
  Correction ZPE           13.517 [kcal/mol]       56.556 [kJ/mol]       0.02154087 [Eh]        4727.674 [cm^-1]
  Total ZPE, Electronic energy at 0 [K]                                -76.31081498 [Eh]

  Thermal Energy, E (includes ZPE)
    Electronic E            0.000 [kcal/mol]        0.000 [kJ/mol]       0.00000000 [Eh]
    Translational E         0.889 [kcal/mol]        3.718 [kJ/mol]       0.00141628 [Eh]
    Rotational E            0.889 [kcal/mol]        3.718 [kJ/mol]       0.00141628 [Eh]
    Vibrational E          13.519 [kcal/mol]       56.562 [kJ/mol]       0.02154329 [Eh]
  Correction E             15.296 [kcal/mol]       63.999 [kJ/mol]       0.02437584 [Eh]
  Total E, Electronic energy at  298.15 [K]                            -76.30798001 [Eh]

  Enthalpy, H_trans = E_trans + k_B * T
    Electronic H            0.000 [kcal/mol]        0.000 [kJ/mol]       0.00000000 [Eh]
    Translational H         1.481 [kcal/mol]        6.197 [kJ/mol]       0.00236046 [Eh]
    Rotational H            0.889 [kcal/mol]        3.718 [kJ/mol]       0.00141628 [Eh]
    Vibrational H          13.519 [kcal/mol]       56.562 [kJ/mol]       0.02154329 [Eh]
  Correction H             15.889 [kcal/mol]       66.478 [kJ/mol]       0.02532002 [Eh]
  Total H, Enthalpy at  298.15 [K]                                     -76.30703583 [Eh]

  Gibbs free energy, G = H - T * S
    Electronic G            0.000 [kcal/mol]        0.000 [kJ/mol]       0.00000000 [Eh]
    Translational G        -8.837 [kcal/mol]      -36.975 [kJ/mol]      -0.01408304 [Eh]
    Rotational G           -2.232 [kcal/mol]       -9.339 [kJ/mol]      -0.00355691 [Eh]
    Vibrational G          13.517 [kcal/mol]       56.555 [kJ/mol]       0.02154057 [Eh]
  Correction G              2.448 [kcal/mol]       10.241 [kJ/mol]       0.00390061 [Eh]
  Total G, Free enthalpy at  298.15 [K]                                -76.32845523 [Eh]

*** Psi4 exiting successfully. Buy a developer a beer!
