                               Psi4 1.3.2 release

  ==> Input File <==

--------------------------------------------------------------------------
#PSI4 file for HOH opt

memory 10 GB

molecule mol {
0 1
H
O 1 OH
H 2 OH 1 HOH

OH = 1
HOH = 104.5
}

set {
  scf_type df
  mp2_type df
  cc_type df
  freeze_core true
  basis cc-pvtz
}

optimize('mp2')
frequencies('mp2')

--------------------------------------------------------------------------

    Molecular point group: c2v
  Charge       = 0
  Multiplicity = 1
  Basis Set: CC-PVTZ
    Blend: CC-PVTZ
  Basis Set: (CC-PVTZ AUX)
    Blend: CC-PVTZ-JKFIT
  @DF-RHF Final Energy:   -76.05098620391834
    Total Energy =                        -76.0509862039183417
  Basis Set: (CC-PVTZ AUX)
    Blend: CC-PVTZ-RI
    Molecular point group: c2v
  Basis Set: CC-PVTZ
    Blend: CC-PVTZ
  Basis Set: (CC-PVTZ AUX)
    Blend: CC-PVTZ-JKFIT
  Basis Set: (CC-PVTZ AUX)
    Blend: CC-PVTZ-JKFIT
	 Reference Energy          =     -76.0509862039183417 [Eh]
	 Singles Energy            =      -0.0000000000000000 [Eh]
	 Same-Spin Energy          =      -0.0641750320466641 [Eh]
	 Opposite-Spin Energy      =      -0.2003714342863397 [Eh]
	 Correlation Energy        =      -0.2645464663330038 [Eh]
	 Total Energy              =     -76.3155326702513435 [Eh]
	 SCS Total Energy          =     -76.3128236024108304 [Eh]
  @DF-RHF Final Energy:   -76.05669288311833
    Total Energy =                        -76.0566928831183304
  @DF-RHF Final Energy:   -76.05693313886819
    Total Energy =                        -76.0569331388681888
  @DF-RHF Final Energy:   -76.05696010639852
    Total Energy =                        -76.0569601063985203
  **** Optimization is complete! (in 4 steps) ****
    Final optimized geometry and variables:
  @DF-RHF Final Energy:   -76.05696010639858
    Total Energy =                        -76.0569601063985772
  @DF-RHF Final Energy:   -76.05696010640096
    Total Energy =                        -76.0569601064009646
  @DF-RHF Final Energy:   -76.05704742895010
    Total Energy =                        -76.0570474289500851
  @DF-RHF Final Energy:   -76.05686237955456
    Total Energy =                        -76.0568623795545591
  @DF-RHF Final Energy:   -76.05684993881341
    Total Energy =                        -76.0568499388134143
  @DF-RHF Final Energy:   -76.05706326614543
    Total Energy =                        -76.0570632661454340
    Molecular point group: cs
  Charge       = 0
  Multiplicity = 1
  Basis Set: CC-PVTZ
    Blend: CC-PVTZ
  Basis Set: (CC-PVTZ AUX)
    Blend: CC-PVTZ-JKFIT

    Orbital Energies [Eh]
    ---------------------

    Doubly Occupied:

       1Ap   -20.555556     2Ap    -1.345486     3Ap    -0.706875
       4Ap    -0.579358     1App   -0.504657

  @DF-RHF Final Energy:   -76.05695268179292

   => Energetics <=

    Nuclear Repulsion Energy =              9.1795260977772077
    One-Electron Energy =                -123.0890933914455161
    Two-Electron Energy =                  37.8526146118753672
    Total Energy =                        -76.0569526817929358

  Dipole Moment: [D]
     X:     0.0000      Y:    -0.0032      Z:    -2.0424     Total:     2.0424

  Basis Set: (CC-PVTZ AUX)
    Blend: CC-PVTZ-RI
    Molecular point group: cs

    Geometry (in Angstrom), charge = 0, multiplicity = 1:

       Center              X                  Y                   Z               Mass
    ------------   -----------------  -----------------  -----------------  -----------------
         H            0.000000000000     0.751834790486    -0.526105237674     1.007825032230
         O            0.000000000000     0.000177676266     0.066438857810    15.994914619570
         H            0.000000000000    -0.754654641766    -0.528327649097     1.007825032230

  Basis Set: CC-PVTZ
    Blend: CC-PVTZ
  Basis Set: (CC-PVTZ AUX)
    Blend: CC-PVTZ-JKFIT
  Basis Set: (CC-PVTZ AUX)
    Blend: CC-PVTZ-JKFIT
	 Reference Energy          =     -76.0569526817929216 [Eh]
	 Singles Energy            =      -0.0000000000000000 [Eh]
	 Same-Spin Energy          =      -0.0635765429116952 [Eh]
	 Opposite-Spin Energy      =      -0.1980580487499059 [Eh]
	 Correlation Energy        =      -0.2616345916616012 [Eh]
	 Total Energy              =     -76.3185872734545256 [Eh]

	 ================> DF-SCS-MP2 Energies <==================
	-----------------------------------------------------------
	 SCS Same-Spin Scale       =       0.3333333333333333 [-]
	 SCS Opposite-Spin Scale   =       1.2000000000000000 [-]
	 SCS Same-Spin Energy      =      -0.0211921809705651 [Eh]
	 SCS Opposite-Spin Energy  =      -0.2376696584998871 [Eh]
	 SCS Correlation Energy    =      -0.2588618394704522 [Eh]
	 SCS Total Energy          =     -76.3158145212633769 [Eh]
	-----------------------------------------------------------

  -Total Gradient:
     Atom            X                  Y                   Z
    ------   -----------------  -----------------  -----------------
       1        0.000000000000    -0.001638543503     0.001288524707
       2        0.000000000000     0.003213078597    -0.000044723165
       3        0.000000000000    -0.001574535094    -0.001243801542

  Vibration                       7                   8                   9
  Freq [cm^-1]                1652.0711           3855.6780           3976.1234
  Irrep                           A1                  A1                  B2
  Reduced mass [u]              1.0826              1.0452              1.0809
  Force const [mDyne/A]         1.7409              9.1552             10.0680

  ==> Thermochemistry Components <==

  Entropy, S
    Electronic S            0.000 [cal/(mol K)]        0.000 [J/(mol K)]       0.00000000 [mEh/K] (multiplicity = 1)
    Translational S        34.608 [cal/(mol K)]      144.801 [J/(mol K)]       0.05515177 [mEh/K] (mol. weight = 18.0106 [u], P = 101325.00 [Pa])
    Rotational S           10.465 [cal/(mol K)]       43.786 [J/(mol K)]       0.01667723 [mEh/K] (symmetry no. = 2)
    Vibrational S           0.006 [cal/(mol K)]        0.026 [J/(mol K)]       0.00000980 [mEh/K]
  Total S                  45.080 [cal/(mol K)]      188.613 [J/(mol K)]       0.07183880 [mEh/K]
  Correction S              0.000 [cal/(mol K)]        0.000 [J/(mol K)]       0.00000000 [mEh/K]

  Constant volume heat capacity, Cv
    Electronic Cv           0.000 [cal/(mol K)]        0.000 [J/(mol K)]       0.00000000 [mEh/K]
    Translational Cv        2.981 [cal/(mol K)]       12.472 [J/(mol K)]       0.00475022 [mEh/K]
    Rotational Cv           2.981 [cal/(mol K)]       12.472 [J/(mol K)]       0.00475022 [mEh/K]
    Vibrational Cv          0.044 [cal/(mol K)]        0.182 [J/(mol K)]       0.00006948 [mEh/K]
  Total Cv                  6.005 [cal/(mol K)]       25.126 [J/(mol K)]       0.00956991 [mEh/K]
  Correction Cv             0.000 [cal/(mol K)]        0.000 [J/(mol K)]       0.00000000 [mEh/K]

  Constant pressure heat capacity, Cp
    Electronic Cp           0.000 [cal/(mol K)]        0.000 [J/(mol K)]       0.00000000 [mEh/K]
    Translational Cp        4.968 [cal/(mol K)]       20.786 [J/(mol K)]       0.00791703 [mEh/K]
    Rotational Cp           2.981 [cal/(mol K)]       12.472 [J/(mol K)]       0.00475022 [mEh/K]
    Vibrational Cp          0.044 [cal/(mol K)]        0.182 [J/(mol K)]       0.00006948 [mEh/K]
  Total Cp                  7.992 [cal/(mol K)]       33.440 [J/(mol K)]       0.01273672 [mEh/K]
  Correction Cp             0.000 [cal/(mol K)]        0.000 [J/(mol K)]       0.00000000 [mEh/K]

  ==> Thermochemistry Energy Analysis <==

  Raw electronic energy, E0
  Total E0, Electronic energy at well bottom at 0 [K]                  -76.31859475 [Eh]

  Zero-point energy, ZPE_vib = Sum_i nu_i / 2
    Electronic ZPE          0.000 [kcal/mol]        0.000 [kJ/mol]       0.00000000 [Eh]
    Translational ZPE       0.000 [kcal/mol]        0.000 [kJ/mol]       0.00000000 [Eh]
    Rotational ZPE          0.000 [kcal/mol]        0.000 [kJ/mol]       0.00000000 [Eh]
    Vibrational ZPE        13.558 [kcal/mol]       56.726 [kJ/mol]       0.02160585 [Eh]        4741.936 [cm^-1]
  Correction ZPE           13.558 [kcal/mol]       56.726 [kJ/mol]       0.02160585 [Eh]        4741.936 [cm^-1]
  Total ZPE, Electronic energy at 0 [K]                                -76.29698890 [Eh]

  Thermal Energy, E (includes ZPE)
    Electronic E            0.000 [kcal/mol]        0.000 [kJ/mol]       0.00000000 [Eh]
    Translational E         0.889 [kcal/mol]        3.718 [kJ/mol]       0.00141628 [Eh]
    Rotational E            0.889 [kcal/mol]        3.718 [kJ/mol]       0.00141628 [Eh]
    Vibrational E          13.560 [kcal/mol]       56.733 [kJ/mol]       0.02160845 [Eh]
  Correction E             15.337 [kcal/mol]       64.170 [kJ/mol]       0.02444100 [Eh]
  Total E, Electronic energy at  298.15 [K]                            -76.29415375 [Eh]

  Enthalpy, H_trans = E_trans + k_B * T
    Electronic H            0.000 [kcal/mol]        0.000 [kJ/mol]       0.00000000 [Eh]
    Translational H         1.481 [kcal/mol]        6.197 [kJ/mol]       0.00236046 [Eh]
    Rotational H            0.889 [kcal/mol]        3.718 [kJ/mol]       0.00141628 [Eh]
    Vibrational H          13.560 [kcal/mol]       56.733 [kJ/mol]       0.02160845 [Eh]
  Correction H             15.929 [kcal/mol]       66.649 [kJ/mol]       0.02538519 [Eh]
  Total H, Enthalpy at  298.15 [K]                                     -76.29320957 [Eh]

  Gibbs free energy, G = H - T * S
    Electronic G            0.000 [kcal/mol]        0.000 [kJ/mol]       0.00000000 [Eh]
    Translational G        -8.837 [kcal/mol]      -36.975 [kJ/mol]      -0.01408304 [Eh]
    Rotational G           -2.231 [kcal/mol]       -9.336 [kJ/mol]      -0.00355604 [Eh]
    Vibrational G          13.558 [kcal/mol]       56.725 [kJ/mol]       0.02160553 [Eh]
  Correction G              2.489 [kcal/mol]       10.414 [kJ/mol]       0.00396645 [Eh]
  Total G, Free enthalpy at  298.15 [K]                                -76.31462830 [Eh]

*** Psi4 exiting successfully. Buy a developer a beer!
